+ 0.1 0 1 cbr 1000 ------- 0 0.0 2.0 0 0
- 0.1 0 1 cbr 1000 ------- 0 0.0 2.0 0 0
+ 0.1 0 1 cbr 1000 ------- 0 0.0 2.0 1 1
+ 0.1 0 1 cbr 1000 ------- 0 0.0 2.0 2 2
+ 0.1 0 1 cbr 1000 ------- 0 0.0 2.0 3 3
+ 0.1 0 1 cbr 1000 ------- 0 0.0 2.0 4 4
- 0.101 0 1 cbr 1000 ------- 0 0.0 2.0 1 1
+ 0.101 0 1 cbr 1000 ------- 0 0.0 2.0 5 5
+ 0.101 0 1 cbr 1000 ------- 0 0.0 2.0 6 6
+ 0.101 0 1 cbr 1000 ------- 0 0.0 2.0 7 7
+ 0.101 0 1 cbr 1000 ------- 0 0.0 2.0 8 8
+ 0.101 0 1 cbr 1000 ------- 0 0.0 2.0 9 9
- 0.102 0 1 cbr 1000 ------- 0 0.0 2.0 2 2
+ 0.102 0 1 cbr 1000 ------- 0 0.0 2.0 10 10
+ 0.102 0 1 cbr 1000 ------- 0 0.0 2.0 11 11
+ 0.102 0 1 cbr 1000 ------- 0 0.0 2.0 12 12
+ 0.102 0 1 cbr 1000 ------- 0 0.0 2.0 13 13
+ 0.102 0 1 cbr 1000 ------- 0 0.0 2.0 14 14
- 0.103 0 1 cbr 1000 ------- 0 0.0 2.0 3 3
+ 0.103 0 1 cbr 1000 ------- 0 0.0 2.0 15 15
+ 0.103 0 1 cbr 1000 ------- 0 0.0 2.0 16 16
+ 0.103 0 1 cbr 1000 ------- 0 0.0 2.0 17 17
+ 0.103 0 1 cbr 1000 ------- 0 0.0 2.0 18 18
+ 0.103 0 1 cbr 1000 ------- 0 0.0 2.0 19 19
- 0.104 0 1 cbr 1000 ------- 0 0.0 2.0 4 4
+ 0.104 0 1 cbr 1000 ------- 0 0.0 2.0 20 20
+ 0.104 0 1 cbr 1000 ------- 0 0.0 2.0 21 21
+ 0.104 0 1 cbr 1000 ------- 0 0.0 2.0 22 22
+ 0.104 0 1 cbr 1000 ------- 0 0.0 2.0 23 23
+ 0.104 0 1 cbr 1000 ------- 0 0.0 2.0 24 24
- 0.105 0 1 cbr 1000 ------- 0 0.0 2.0 5 5
+ 0.105 0 1 cbr 1000 ------- 0 0.0 2.0 25 25
+ 0.105 0 1 cbr 1000 ------- 0 0.0 2.0 26 26
+ 0.105 0 1 cbr 1000 ------- 0 0.0 2.0 27 27
+ 0.105 0 1 cbr 1000 ------- 0 0.0 2.0 28 28
+ 0.105 0 1 cbr 1000 ------- 0 0.0 2.0 29 29
- 0.106 0 1 cbr 1000 ------- 0 0.0 2.0 6 6
+ 0.106 0 1 cbr 1000 ------- 0 0.0 2.0 30 30
+ 0.106 0 1 cbr 1000 ------- 0 0.0 2.0 31 31
+ 0.106 0 1 cbr 1000 ------- 0 0.0 2.0 32 32
+ 0.106 0 1 cbr 1000 ------- 0 0.0 2.0 33 33
+ 0.106 0 1 cbr 1000 ------- 0 0.0 2.0 34 34
- 0.107 0 1 cbr 1000 ------- 0 0.0 2.0 7 7
+ 0.107 0 1 cbr 1000 ------- 0 0.0 2.0 35 35
+ 0.107 0 1 cbr 1000 ------- 0 0.0 2.0 36 36
+ 0.107 0 1 cbr 1000 ------- 0 0.0 2.0 37 37
+ 0.107 0 1 cbr 1000 ------- 0 0.0 2.0 38 38
+ 0.107 0 1 cbr 1000 ------- 0 0.0 2.0 39 39
- 0.108 0 1 cbr 1000 ------- 0 0.0 2.0 8 8
+ 0.108 0 1 cbr 1000 ------- 0 0.0 2.0 40 40
+ 0.108 0 1 cbr 1000 ------- 0 0.0 2.0 41 41
+ 0.108 0 1 cbr 1000 ------- 0 0.0 2.0 42 42
+ 0.108 0 1 cbr 1000 ------- 0 0.0 2.0 43 43
+ 0.108 0 1 cbr 1000 ------- 0 0.0 2.0 44 44
- 0.109 0 1 cbr 1000 ------- 0 0.0 2.0 9 9
+ 0.109 0 1 cbr 1000 ------- 0 0.0 2.0 45 45
+ 0.109 0 1 cbr 1000 ------- 0 0.0 2.0 46 46
+ 0.109 0 1 cbr 1000 ------- 0 0.0 2.0 47 47
+ 0.109 0 1 cbr 1000 ------- 0 0.0 2.0 48 48
+ 0.109 0 1 cbr 1000 ------- 0 0.0 2.0 49 49
- 0.11 0 1 cbr 1000 ------- 0 0.0 2.0 10 10
+ 0.11 0 1 cbr 1000 ------- 0 0.0 2.0 50 50
+ 0.11 0 1 cbr 1000 ------- 0 0.0 2.0 51 51
+ 0.11 0 1 cbr 1000 ------- 0 0.0 2.0 52 52
+ 0.11 0 1 cbr 1000 ------- 0 0.0 2.0 53 53
+ 0.11 0 1 cbr 1000 ------- 0 0.0 2.0 54 54
- 0.111 0 1 cbr 1000 ------- 0 0.0 2.0 11 11
+ 0.111 0 1 cbr 1000 ------- 0 0.0 2.0 55 55
+ 0.111 0 1 cbr 1000 ------- 0 0.0 2.0 56 56
+ 0.111 0 1 cbr 1000 ------- 0 0.0 2.0 57 57
+ 0.111 0 1 cbr 1000 ------- 0 0.0 2.0 58 58
+ 0.111 0 1 cbr 1000 ------- 0 0.0 2.0 59 59
- 0.112 0 1 cbr 1000 ------- 0 0.0 2.0 12 12
+ 0.112 0 1 cbr 1000 ------- 0 0.0 2.0 60 60
+ 0.112 0 1 cbr 1000 ------- 0 0.0 2.0 61 61
+ 0.112 0 1 cbr 1000 ------- 0 0.0 2.0 62 62
d 0.112 0 1 cbr 1000 ------- 0 0.0 2.0 62 62
+ 0.112 0 1 cbr 1000 ------- 0 0.0 2.0 63 63
d 0.112 0 1 cbr 1000 ------- 0 0.0 2.0 63 63
+ 0.112 0 1 cbr 1000 ------- 0 0.0 2.0 64 64
d 0.112 0 1 cbr 1000 ------- 0 0.0 2.0 64 64
- 0.113 0 1 cbr 1000 ------- 0 0.0 2.0 13 13
+ 0.113 0 1 cbr 1000 ------- 0 0.0 2.0 65 65
+ 0.113 0 1 cbr 1000 ------- 0 0.0 2.0 66 66
d 0.113 0 1 cbr 1000 ------- 0 0.0 2.0 66 66
+ 0.113 0 1 cbr 1000 ------- 0 0.0 2.0 67 67
d 0.113 0 1 cbr 1000 ------- 0 0.0 2.0 67 67
+ 0.113 0 1 cbr 1000 ------- 0 0.0 2.0 68 68
d 0.113 0 1 cbr 1000 ------- 0 0.0 2.0 68 68
+ 0.113 0 1 cbr 1000 ------- 0 0.0 2.0 69 69
d 0.113 0 1 cbr 1000 ------- 0 0.0 2.0 69 69
- 0.114 0 1 cbr 1000 ------- 0 0.0 2.0 14 14
+ 0.114 0 1 cbr 1000 ------- 0 0.0 2.0 70 70
+ 0.114 0 1 cbr 1000 ------- 0 0.0 2.0 71 71
d 0.114 0 1 cbr 1000 ------- 0 0.0 2.0 71 71
+ 0.114 0 1 cbr 1000 ------- 0 0.0 2.0 72 72
d 0.114 0 1 cbr 1000 ------- 0 0.0 2.0 72 72
+ 0.114 0 1 cbr 1000 ------- 0 0.0 2.0 73 73
d 0.114 0 1 cbr 1000 ------- 0 0.0 2.0 73 73
+ 0.114 0 1 cbr 1000 ------- 0 0.0 2.0 74 74
d 0.114 0 1 cbr 1000 ------- 0 0.0 2.0 74 74
- 0.115 0 1 cbr 1000 ------- 0 0.0 2.0 15 15
+ 0.115 0 1 cbr 1000 ------- 0 0.0 2.0 75 75
+ 0.115 0 1 cbr 1000 ------- 0 0.0 2.0 76 76
d 0.115 0 1 cbr 1000 ------- 0 0.0 2.0 76 76
+ 0.115 0 1 cbr 1000 ------- 0 0.0 2.0 77 77
d 0.115 0 1 cbr 1000 ------- 0 0.0 2.0 77 77
+ 0.115 0 1 cbr 1000 ------- 0 0.0 2.0 78 78
d 0.115 0 1 cbr 1000 ------- 0 0.0 2.0 78 78
+ 0.115 0 1 cbr 1000 ------- 0 0.0 2.0 79 79
d 0.115 0 1 cbr 1000 ------- 0 0.0 2.0 79 79
- 0.116 0 1 cbr 1000 ------- 0 0.0 2.0 16 16
+ 0.116 0 1 cbr 1000 ------- 0 0.0 2.0 80 80
+ 0.116 0 1 cbr 1000 ------- 0 0.0 2.0 81 81
d 0.116 0 1 cbr 1000 ------- 0 0.0 2.0 81 81
+ 0.116 0 1 cbr 1000 ------- 0 0.0 2.0 82 82
d 0.116 0 1 cbr 1000 ------- 0 0.0 2.0 82 82
+ 0.116 0 1 cbr 1000 ------- 0 0.0 2.0 83 83
d 0.116 0 1 cbr 1000 ------- 0 0.0 2.0 83 83
+ 0.116 0 1 cbr 1000 ------- 0 0.0 2.0 84 84
d 0.116 0 1 cbr 1000 ------- 0 0.0 2.0 84 84
- 0.117 0 1 cbr 1000 ------- 0 0.0 2.0 17 17
+ 0.117 0 1 cbr 1000 ------- 0 0.0 2.0 85 85
+ 0.117 0 1 cbr 1000 ------- 0 0.0 2.0 86 86
d 0.117 0 1 cbr 1000 ------- 0 0.0 2.0 86 86
+ 0.117 0 1 cbr 1000 ------- 0 0.0 2.0 87 87
d 0.117 0 1 cbr 1000 ------- 0 0.0 2.0 87 87
+ 0.117 0 1 cbr 1000 ------- 0 0.0 2.0 88 88
d 0.117 0 1 cbr 1000 ------- 0 0.0 2.0 88 88
+ 0.117 0 1 cbr 1000 ------- 0 0.0 2.0 89 89
d 0.117 0 1 cbr 1000 ------- 0 0.0 2.0 89 89
- 0.118 0 1 cbr 1000 ------- 0 0.0 2.0 18 18
+ 0.118 0 1 cbr 1000 ------- 0 0.0 2.0 90 90
+ 0.118 0 1 cbr 1000 ------- 0 0.0 2.0 91 91
d 0.118 0 1 cbr 1000 ------- 0 0.0 2.0 91 91
+ 0.118 0 1 cbr 1000 ------- 0 0.0 2.0 92 92
d 0.118 0 1 cbr 1000 ------- 0 0.0 2.0 92 92
+ 0.118 0 1 cbr 1000 ------- 0 0.0 2.0 93 93
d 0.118 0 1 cbr 1000 ------- 0 0.0 2.0 93 93
+ 0.118 0 1 cbr 1000 ------- 0 0.0 2.0 94 94
d 0.118 0 1 cbr 1000 ------- 0 0.0 2.0 94 94
- 0.119 0 1 cbr 1000 ------- 0 0.0 2.0 19 19
+ 0.119 0 1 cbr 1000 ------- 0 0.0 2.0 95 95
+ 0.119 0 1 cbr 1000 ------- 0 0.0 2.0 96 96
d 0.119 0 1 cbr 1000 ------- 0 0.0 2.0 96 96
+ 0.119 0 1 cbr 1000 ------- 0 0.0 2.0 97 97
d 0.119 0 1 cbr 1000 ------- 0 0.0 2.0 97 97
+ 0.119 0 1 cbr 1000 ------- 0 0.0 2.0 98 98
d 0.119 0 1 cbr 1000 ------- 0 0.0 2.0 98 98
+ 0.119 0 1 cbr 1000 ------- 0 0.0 2.0 99 99
d 0.119 0 1 cbr 1000 ------- 0 0.0 2.0 99 99
- 0.12 0 1 cbr 1000 ------- 0 0.0 2.0 20 20
+ 0.12 0 1 cbr 1000 ------- 0 0.0 2.0 100 100
+ 0.12 0 1 cbr 1000 ------- 0 0.0 2.0 101 101
d 0.12 0 1 cbr 1000 ------- 0 0.0 2.0 101 101
+ 0.12 0 1 cbr 1000 ------- 0 0.0 2.0 102 102
d 0.12 0 1 cbr 1000 ------- 0 0.0 2.0 102 102
+ 0.12 0 1 cbr 1000 ------- 0 0.0 2.0 103 103
d 0.12 0 1 cbr 1000 ------- 0 0.0 2.0 103 103
+ 0.12 0 1 cbr 1000 ------- 0 0.0 2.0 104 104
d 0.12 0 1 cbr 1000 ------- 0 0.0 2.0 104 104
- 0.121 0 1 cbr 1000 ------- 0 0.0 2.0 21 21
+ 0.121 0 1 cbr 1000 ------- 0 0.0 2.0 105 105
+ 0.121 0 1 cbr 1000 ------- 0 0.0 2.0 106 106
d 0.121 0 1 cbr 1000 ------- 0 0.0 2.0 106 106
+ 0.121 0 1 cbr 1000 ------- 0 0.0 2.0 107 107
d 0.121 0 1 cbr 1000 ------- 0 0.0 2.0 107 107
+ 0.121 0 1 cbr 1000 ------- 0 0.0 2.0 108 108
d 0.121 0 1 cbr 1000 ------- 0 0.0 2.0 108 108
+ 0.121 0 1 cbr 1000 ------- 0 0.0 2.0 109 109
d 0.121 0 1 cbr 1000 ------- 0 0.0 2.0 109 109
- 0.122 0 1 cbr 1000 ------- 0 0.0 2.0 22 22
+ 0.122 0 1 cbr 1000 ------- 0 0.0 2.0 110 110
+ 0.122 0 1 cbr 1000 ------- 0 0.0 2.0 111 111
d 0.122 0 1 cbr 1000 ------- 0 0.0 2.0 111 111
+ 0.122 0 1 cbr 1000 ------- 0 0.0 2.0 112 112
d 0.122 0 1 cbr 1000 ------- 0 0.0 2.0 112 112
+ 0.122 0 1 cbr 1000 ------- 0 0.0 2.0 113 113
d 0.122 0 1 cbr 1000 ------- 0 0.0 2.0 113 113
+ 0.122 0 1 cbr 1000 ------- 0 0.0 2.0 114 114
d 0.122 0 1 cbr 1000 ------- 0 0.0 2.0 114 114
- 0.123 0 1 cbr 1000 ------- 0 0.0 2.0 23 23
+ 0.123 0 1 cbr 1000 ------- 0 0.0 2.0 115 115
+ 0.123 0 1 cbr 1000 ------- 0 0.0 2.0 116 116
d 0.123 0 1 cbr 1000 ------- 0 0.0 2.0 116 116
+ 0.123 0 1 cbr 1000 ------- 0 0.0 2.0 117 117
d 0.123 0 1 cbr 1000 ------- 0 0.0 2.0 117 117
+ 0.123 0 1 cbr 1000 ------- 0 0.0 2.0 118 118
d 0.123 0 1 cbr 1000 ------- 0 0.0 2.0 118 118
+ 0.123 0 1 cbr 1000 ------- 0 0.0 2.0 119 119
d 0.123 0 1 cbr 1000 ------- 0 0.0 2.0 119 119
- 0.124 0 1 cbr 1000 ------- 0 0.0 2.0 24 24
+ 0.124 0 1 cbr 1000 ------- 0 0.0 2.0 120 120
+ 0.124 0 1 cbr 1000 ------- 0 0.0 2.0 121 121
d 0.124 0 1 cbr 1000 ------- 0 0.0 2.0 121 121
+ 0.124 0 1 cbr 1000 ------- 0 0.0 2.0 122 122
d 0.124 0 1 cbr 1000 ------- 0 0.0 2.0 122 122
+ 0.124 0 1 cbr 1000 ------- 0 0.0 2.0 123 123
d 0.124 0 1 cbr 1000 ------- 0 0.0 2.0 123 123
+ 0.124 0 1 cbr 1000 ------- 0 0.0 2.0 124 124
d 0.124 0 1 cbr 1000 ------- 0 0.0 2.0 124 124
- 0.125 0 1 cbr 1000 ------- 0 0.0 2.0 25 25
+ 0.125 0 1 cbr 1000 ------- 0 0.0 2.0 125 125
+ 0.125 0 1 cbr 1000 ------- 0 0.0 2.0 126 126
d 0.125 0 1 cbr 1000 ------- 0 0.0 2.0 126 126
+ 0.125 0 1 cbr 1000 ------- 0 0.0 2.0 127 127
d 0.125 0 1 cbr 1000 ------- 0 0.0 2.0 127 127
+ 0.125 0 1 cbr 1000 ------- 0 0.0 2.0 128 128
d 0.125 0 1 cbr 1000 ------- 0 0.0 2.0 128 128
+ 0.125 0 1 cbr 1000 ------- 0 0.0 2.0 129 129
d 0.125 0 1 cbr 1000 ------- 0 0.0 2.0 129 129
- 0.126 0 1 cbr 1000 ------- 0 0.0 2.0 26 26
+ 0.126 0 1 cbr 1000 ------- 0 0.0 2.0 130 130
+ 0.126 0 1 cbr 1000 ------- 0 0.0 2.0 131 131
d 0.126 0 1 cbr 1000 ------- 0 0.0 2.0 131 131
+ 0.126 0 1 cbr 1000 ------- 0 0.0 2.0 132 132
d 0.126 0 1 cbr 1000 ------- 0 0.0 2.0 132 132
+ 0.126 0 1 cbr 1000 ------- 0 0.0 2.0 133 133
d 0.126 0 1 cbr 1000 ------- 0 0.0 2.0 133 133
+ 0.126 0 1 cbr 1000 ------- 0 0.0 2.0 134 134
d 0.126 0 1 cbr 1000 ------- 0 0.0 2.0 134 134
- 0.127 0 1 cbr 1000 ------- 0 0.0 2.0 27 27
+ 0.127 0 1 cbr 1000 ------- 0 0.0 2.0 135 135
+ 0.127 0 1 cbr 1000 ------- 0 0.0 2.0 136 136
d 0.127 0 1 cbr 1000 ------- 0 0.0 2.0 136 136
+ 0.127 0 1 cbr 1000 ------- 0 0.0 2.0 137 137
d 0.127 0 1 cbr 1000 ------- 0 0.0 2.0 137 137
+ 0.127 0 1 cbr 1000 ------- 0 0.0 2.0 138 138
d 0.127 0 1 cbr 1000 ------- 0 0.0 2.0 138 138
+ 0.127 0 1 cbr 1000 ------- 0 0.0 2.0 139 139
d 0.127 0 1 cbr 1000 ------- 0 0.0 2.0 139 139
- 0.128 0 1 cbr 1000 ------- 0 0.0 2.0 28 28
+ 0.128 0 1 cbr 1000 ------- 0 0.0 2.0 140 140
+ 0.128 0 1 cbr 1000 ------- 0 0.0 2.0 141 141
d 0.128 0 1 cbr 1000 ------- 0 0.0 2.0 141 141
+ 0.128 0 1 cbr 1000 ------- 0 0.0 2.0 142 142
d 0.128 0 1 cbr 1000 ------- 0 0.0 2.0 142 142
+ 0.128 0 1 cbr 1000 ------- 0 0.0 2.0 143 143
d 0.128 0 1 cbr 1000 ------- 0 0.0 2.0 143 143
+ 0.128 0 1 cbr 1000 ------- 0 0.0 2.0 144 144
d 0.128 0 1 cbr 1000 ------- 0 0.0 2.0 144 144
- 0.129 0 1 cbr 1000 ------- 0 0.0 2.0 29 29
+ 0.129 0 1 cbr 1000 ------- 0 0.0 2.0 145 145
+ 0.129 0 1 cbr 1000 ------- 0 0.0 2.0 146 146
d 0.129 0 1 cbr 1000 ------- 0 0.0 2.0 146 146
+ 0.129 0 1 cbr 1000 ------- 0 0.0 2.0 147 147
d 0.129 0 1 cbr 1000 ------- 0 0.0 2.0 147 147
+ 0.129 0 1 cbr 1000 ------- 0 0.0 2.0 148 148
d 0.129 0 1 cbr 1000 ------- 0 0.0 2.0 148 148
+ 0.129 0 1 cbr 1000 ------- 0 0.0 2.0 149 149
d 0.129 0 1 cbr 1000 ------- 0 0.0 2.0 149 149
- 0.13 0 1 cbr 1000 ------- 0 0.0 2.0 30 30
+ 0.13 0 1 cbr 1000 ------- 0 0.0 2.0 150 150
+ 0.13 0 1 cbr 1000 ------- 0 0.0 2.0 151 151
d 0.13 0 1 cbr 1000 ------- 0 0.0 2.0 151 151
+ 0.13 0 1 cbr 1000 ------- 0 0.0 2.0 152 152
d 0.13 0 1 cbr 1000 ------- 0 0.0 2.0 152 152
+ 0.13 0 1 cbr 1000 ------- 0 0.0 2.0 153 153
d 0.13 0 1 cbr 1000 ------- 0 0.0 2.0 153 153
+ 0.13 0 1 cbr 1000 ------- 0 0.0 2.0 154 154
d 0.13 0 1 cbr 1000 ------- 0 0.0 2.0 154 154
- 0.131 0 1 cbr 1000 ------- 0 0.0 2.0 31 31
+ 0.131 0 1 cbr 1000 ------- 0 0.0 2.0 155 155
+ 0.131 0 1 cbr 1000 ------- 0 0.0 2.0 156 156
d 0.131 0 1 cbr 1000 ------- 0 0.0 2.0 156 156
+ 0.131 0 1 cbr 1000 ------- 0 0.0 2.0 157 157
d 0.131 0 1 cbr 1000 ------- 0 0.0 2.0 157 157
+ 0.131 0 1 cbr 1000 ------- 0 0.0 2.0 158 158
d 0.131 0 1 cbr 1000 ------- 0 0.0 2.0 158 158
+ 0.131 0 1 cbr 1000 ------- 0 0.0 2.0 159 159
d 0.131 0 1 cbr 1000 ------- 0 0.0 2.0 159 159
- 0.132 0 1 cbr 1000 ------- 0 0.0 2.0 32 32
+ 0.132 0 1 cbr 1000 ------- 0 0.0 2.0 160 160
+ 0.132 0 1 cbr 1000 ------- 0 0.0 2.0 161 161
d 0.132 0 1 cbr 1000 ------- 0 0.0 2.0 161 161
+ 0.132 0 1 cbr 1000 ------- 0 0.0 2.0 162 162
d 0.132 0 1 cbr 1000 ------- 0 0.0 2.0 162 162
+ 0.132 0 1 cbr 1000 ------- 0 0.0 2.0 163 163
d 0.132 0 1 cbr 1000 ------- 0 0.0 2.0 163 163
+ 0.132 0 1 cbr 1000 ------- 0 0.0 2.0 164 164
d 0.132 0 1 cbr 1000 ------- 0 0.0 2.0 164 164
- 0.133 0 1 cbr 1000 ------- 0 0.0 2.0 33 33
+ 0.133 0 1 cbr 1000 ------- 0 0.0 2.0 165 165
+ 0.133 0 1 cbr 1000 ------- 0 0.0 2.0 166 166
d 0.133 0 1 cbr 1000 ------- 0 0.0 2.0 166 166
+ 0.133 0 1 cbr 1000 ------- 0 0.0 2.0 167 167
d 0.133 0 1 cbr 1000 ------- 0 0.0 2.0 167 167
+ 0.133 0 1 cbr 1000 ------- 0 0.0 2.0 168 168
d 0.133 0 1 cbr 1000 ------- 0 0.0 2.0 168 168
+ 0.133 0 1 cbr 1000 ------- 0 0.0 2.0 169 169
d 0.133 0 1 cbr 1000 ------- 0 0.0 2.0 169 169
- 0.134 0 1 cbr 1000 ------- 0 0.0 2.0 34 34
+ 0.134 0 1 cbr 1000 ------- 0 0.0 2.0 170 170
+ 0.134 0 1 cbr 1000 ------- 0 0.0 2.0 171 171
d 0.134 0 1 cbr 1000 ------- 0 0.0 2.0 171 171
+ 0.134 0 1 cbr 1000 ------- 0 0.0 2.0 172 172
d 0.134 0 1 cbr 1000 ------- 0 0.0 2.0 172 172
+ 0.134 0 1 cbr 1000 ------- 0 0.0 2.0 173 173
d 0.134 0 1 cbr 1000 ------- 0 0.0 2.0 173 173
+ 0.134 0 1 cbr 1000 ------- 0 0.0 2.0 174 174
d 0.134 0 1 cbr 1000 ------- 0 0.0 2.0 174 174
- 0.135 0 1 cbr 1000 ------- 0 0.0 2.0 35 35
+ 0.135 0 1 cbr 1000 ------- 0 0.0 2.0 175 175
+ 0.135 0 1 cbr 1000 ------- 0 0.0 2.0 176 176
d 0.135 0 1 cbr 1000 ------- 0 0.0 2.0 176 176
+ 0.135 0 1 cbr 1000 ------- 0 0.0 2.0 177 177
d 0.135 0 1 cbr 1000 ------- 0 0.0 2.0 177 177
+ 0.135 0 1 cbr 1000 ------- 0 0.0 2.0 178 178
d 0.135 0 1 cbr 1000 ------- 0 0.0 2.0 178 178
+ 0.135 0 1 cbr 1000 ------- 0 0.0 2.0 179 179
d 0.135 0 1 cbr 1000 ------- 0 0.0 2.0 179 179
- 0.136 0 1 cbr 1000 ------- 0 0.0 2.0 36 36
+ 0.136 0 1 cbr 1000 ------- 0 0.0 2.0 180 180
+ 0.136 0 1 cbr 1000 ------- 0 0.0 2.0 181 181
d 0.136 0 1 cbr 1000 ------- 0 0.0 2.0 181 181
+ 0.136 0 1 cbr 1000 ------- 0 0.0 2.0 182 182
d 0.136 0 1 cbr 1000 ------- 0 0.0 2.0 182 182
+ 0.136 0 1 cbr 1000 ------- 0 0.0 2.0 183 183
d 0.136 0 1 cbr 1000 ------- 0 0.0 2.0 183 183
+ 0.136 0 1 cbr 1000 ------- 0 0.0 2.0 184 184
d 0.136 0 1 cbr 1000 ------- 0 0.0 2.0 184 184
- 0.137 0 1 cbr 1000 ------- 0 0.0 2.0 37 37
+ 0.137 0 1 cbr 1000 ------- 0 0.0 2.0 185 185
+ 0.137 0 1 cbr 1000 ------- 0 0.0 2.0 186 186
d 0.137 0 1 cbr 1000 ------- 0 0.0 2.0 186 186
+ 0.137 0 1 cbr 1000 ------- 0 0.0 2.0 187 187
d 0.137 0 1 cbr 1000 ------- 0 0.0 2.0 187 187
+ 0.137 0 1 cbr 1000 ------- 0 0.0 2.0 188 188
d 0.137 0 1 cbr 1000 ------- 0 0.0 2.0 188 188
+ 0.137 0 1 cbr 1000 ------- 0 0.0 2.0 189 189
d 0.137 0 1 cbr 1000 ------- 0 0.0 2.0 189 189
- 0.138 0 1 cbr 1000 ------- 0 0.0 2.0 38 38
+ 0.138 0 1 cbr 1000 ------- 0 0.0 2.0 190 190
+ 0.138 0 1 cbr 1000 ------- 0 0.0 2.0 191 191
d 0.138 0 1 cbr 1000 ------- 0 0.0 2.0 191 191
+ 0.138 0 1 cbr 1000 ------- 0 0.0 2.0 192 192
d 0.138 0 1 cbr 1000 ------- 0 0.0 2.0 192 192
+ 0.138 0 1 cbr 1000 ------- 0 0.0 2.0 193 193
d 0.138 0 1 cbr 1000 ------- 0 0.0 2.0 193 193
+ 0.138 0 1 cbr 1000 ------- 0 0.0 2.0 194 194
d 0.138 0 1 cbr 1000 ------- 0 0.0 2.0 194 194
- 0.139 0 1 cbr 1000 ------- 0 0.0 2.0 39 39
+ 0.139 0 1 cbr 1000 ------- 0 0.0 2.0 195 195
+ 0.139 0 1 cbr 1000 ------- 0 0.0 2.0 196 196
d 0.139 0 1 cbr 1000 ------- 0 0.0 2.0 196 196
+ 0.139 0 1 cbr 1000 ------- 0 0.0 2.0 197 197
d 0.139 0 1 cbr 1000 ------- 0 0.0 2.0 197 197
+ 0.139 0 1 cbr 1000 ------- 0 0.0 2.0 198 198
d 0.139 0 1 cbr 1000 ------- 0 0.0 2.0 198 198
+ 0.139 0 1 cbr 1000 ------- 0 0.0 2.0 199 199
d 0.139 0 1 cbr 1000 ------- 0 0.0 2.0 199 199
- 0.14 0 1 cbr 1000 ------- 0 0.0 2.0 40 40
+ 0.14 0 1 cbr 1000 ------- 0 0.0 2.0 200 200
+ 0.14 0 1 cbr 1000 ------- 0 0.0 2.0 201 201
d 0.14 0 1 cbr 1000 ------- 0 0.0 2.0 201 201
+ 0.14 0 1 cbr 1000 ------- 0 0.0 2.0 202 202
d 0.14 0 1 cbr 1000 ------- 0 0.0 2.0 202 202
+ 0.14 0 1 cbr 1000 ------- 0 0.0 2.0 203 203
d 0.14 0 1 cbr 1000 ------- 0 0.0 2.0 203 203
+ 0.14 0 1 cbr 1000 ------- 0 0.0 2.0 204 204
d 0.14 0 1 cbr 1000 ------- 0 0.0 2.0 204 204
- 0.141 0 1 cbr 1000 ------- 0 0.0 2.0 41 41
+ 0.141 0 1 cbr 1000 ------- 0 0.0 2.0 205 205
+ 0.141 0 1 cbr 1000 ------- 0 0.0 2.0 206 206
d 0.141 0 1 cbr 1000 ------- 0 0.0 2.0 206 206
+ 0.141 0 1 cbr 1000 ------- 0 0.0 2.0 207 207
d 0.141 0 1 cbr 1000 ------- 0 0.0 2.0 207 207
+ 0.141 0 1 cbr 1000 ------- 0 0.0 2.0 208 208
d 0.141 0 1 cbr 1000 ------- 0 0.0 2.0 208 208
+ 0.141 0 1 cbr 1000 ------- 0 0.0 2.0 209 209
d 0.141 0 1 cbr 1000 ------- 0 0.0 2.0 209 209
- 0.142 0 1 cbr 1000 ------- 0 0.0 2.0 42 42
+ 0.142 0 1 cbr 1000 ------- 0 0.0 2.0 210 210
+ 0.142 0 1 cbr 1000 ------- 0 0.0 2.0 211 211
d 0.142 0 1 cbr 1000 ------- 0 0.0 2.0 211 211
+ 0.142 0 1 cbr 1000 ------- 0 0.0 2.0 212 212
d 0.142 0 1 cbr 1000 ------- 0 0.0 2.0 212 212
+ 0.142 0 1 cbr 1000 ------- 0 0.0 2.0 213 213
d 0.142 0 1 cbr 1000 ------- 0 0.0 2.0 213 213
+ 0.142 0 1 cbr 1000 ------- 0 0.0 2.0 214 214
d 0.142 0 1 cbr 1000 ------- 0 0.0 2.0 214 214
- 0.143 0 1 cbr 1000 ------- 0 0.0 2.0 43 43
+ 0.143 0 1 cbr 1000 ------- 0 0.0 2.0 215 215
+ 0.143 0 1 cbr 1000 ------- 0 0.0 2.0 216 216
d 0.143 0 1 cbr 1000 ------- 0 0.0 2.0 216 216
+ 0.143 0 1 cbr 1000 ------- 0 0.0 2.0 217 217
d 0.143 0 1 cbr 1000 ------- 0 0.0 2.0 217 217
+ 0.143 0 1 cbr 1000 ------- 0 0.0 2.0 218 218
d 0.143 0 1 cbr 1000 ------- 0 0.0 2.0 218 218
+ 0.143 0 1 cbr 1000 ------- 0 0.0 2.0 219 219
d 0.143 0 1 cbr 1000 ------- 0 0.0 2.0 219 219
- 0.144 0 1 cbr 1000 ------- 0 0.0 2.0 44 44
+ 0.144 0 1 cbr 1000 ------- 0 0.0 2.0 220 220
+ 0.144 0 1 cbr 1000 ------- 0 0.0 2.0 221 221
d 0.144 0 1 cbr 1000 ------- 0 0.0 2.0 221 221
+ 0.144 0 1 cbr 1000 ------- 0 0.0 2.0 222 222
d 0.144 0 1 cbr 1000 ------- 0 0.0 2.0 222 222
+ 0.144 0 1 cbr 1000 ------- 0 0.0 2.0 223 223
d 0.144 0 1 cbr 1000 ------- 0 0.0 2.0 223 223
+ 0.144 0 1 cbr 1000 ------- 0 0.0 2.0 224 224
d 0.144 0 1 cbr 1000 ------- 0 0.0 2.0 224 224
- 0.145 0 1 cbr 1000 ------- 0 0.0 2.0 45 45
+ 0.145 0 1 cbr 1000 ------- 0 0.0 2.0 225 225
+ 0.145 0 1 cbr 1000 ------- 0 0.0 2.0 226 226
d 0.145 0 1 cbr 1000 ------- 0 0.0 2.0 226 226
+ 0.145 0 1 cbr 1000 ------- 0 0.0 2.0 227 227
d 0.145 0 1 cbr 1000 ------- 0 0.0 2.0 227 227
+ 0.145 0 1 cbr 1000 ------- 0 0.0 2.0 228 228
d 0.145 0 1 cbr 1000 ------- 0 0.0 2.0 228 228
+ 0.145 0 1 cbr 1000 ------- 0 0.0 2.0 229 229
d 0.145 0 1 cbr 1000 ------- 0 0.0 2.0 229 229
- 0.146 0 1 cbr 1000 ------- 0 0.0 2.0 46 46
+ 0.146 0 1 cbr 1000 ------- 0 0.0 2.0 230 230
+ 0.146 0 1 cbr 1000 ------- 0 0.0 2.0 231 231
d 0.146 0 1 cbr 1000 ------- 0 0.0 2.0 231 231
+ 0.146 0 1 cbr 1000 ------- 0 0.0 2.0 232 232
d 0.146 0 1 cbr 1000 ------- 0 0.0 2.0 232 232
+ 0.146 0 1 cbr 1000 ------- 0 0.0 2.0 233 233
d 0.146 0 1 cbr 1000 ------- 0 0.0 2.0 233 233
+ 0.146 0 1 cbr 1000 ------- 0 0.0 2.0 234 234
d 0.146 0 1 cbr 1000 ------- 0 0.0 2.0 234 234
- 0.147 0 1 cbr 1000 ------- 0 0.0 2.0 47 47
+ 0.147 0 1 cbr 1000 ------- 0 0.0 2.0 235 235
+ 0.147 0 1 cbr 1000 ------- 0 0.0 2.0 236 236
d 0.147 0 1 cbr 1000 ------- 0 0.0 2.0 236 236
+ 0.147 0 1 cbr 1000 ------- 0 0.0 2.0 237 237
d 0.147 0 1 cbr 1000 ------- 0 0.0 2.0 237 237
+ 0.147 0 1 cbr 1000 ------- 0 0.0 2.0 238 238
d 0.147 0 1 cbr 1000 ------- 0 0.0 2.0 238 238
+ 0.147 0 1 cbr 1000 ------- 0 0.0 2.0 239 239
d 0.147 0 1 cbr 1000 ------- 0 0.0 2.0 239 239
- 0.148 0 1 cbr 1000 ------- 0 0.0 2.0 48 48
+ 0.148 0 1 cbr 1000 ------- 0 0.0 2.0 240 240
+ 0.148 0 1 cbr 1000 ------- 0 0.0 2.0 241 241
d 0.148 0 1 cbr 1000 ------- 0 0.0 2.0 241 241
+ 0.148 0 1 cbr 1000 ------- 0 0.0 2.0 242 242
d 0.148 0 1 cbr 1000 ------- 0 0.0 2.0 242 242
+ 0.148 0 1 cbr 1000 ------- 0 0.0 2.0 243 243
d 0.148 0 1 cbr 1000 ------- 0 0.0 2.0 243 243
+ 0.148 0 1 cbr 1000 ------- 0 0.0 2.0 244 244
d 0.148 0 1 cbr 1000 ------- 0 0.0 2.0 244 244
- 0.149 0 1 cbr 1000 ------- 0 0.0 2.0 49 49
+ 0.149 0 1 cbr 1000 ------- 0 0.0 2.0 245 245
+ 0.149 0 1 cbr 1000 ------- 0 0.0 2.0 246 246
d 0.149 0 1 cbr 1000 ------- 0 0.0 2.0 246 246
+ 0.149 0 1 cbr 1000 ------- 0 0.0 2.0 247 247
d 0.149 0 1 cbr 1000 ------- 0 0.0 2.0 247 247
+ 0.149 0 1 cbr 1000 ------- 0 0.0 2.0 248 248
d 0.149 0 1 cbr 1000 ------- 0 0.0 2.0 248 248
+ 0.149 0 1 cbr 1000 ------- 0 0.0 2.0 249 249
d 0.149 0 1 cbr 1000 ------- 0 0.0 2.0 249 249
- 0.15 0 1 cbr 1000 ------- 0 0.0 2.0 50 50
+ 0.15 0 1 cbr 1000 ------- 0 0.0 2.0 250 250
+ 0.15 0 1 cbr 1000 ------- 0 0.0 2.0 251 251
d 0.15 0 1 cbr 1000 ------- 0 0.0 2.0 251 251
+ 0.15 0 1 cbr 1000 ------- 0 0.0 2.0 252 252
d 0.15 0 1 cbr 1000 ------- 0 0.0 2.0 252 252
+ 0.15 0 1 cbr 1000 ------- 0 0.0 2.0 253 253
d 0.15 0 1 cbr 1000 ------- 0 0.0 2.0 253 253
+ 0.15 0 1 cbr 1000 ------- 0 0.0 2.0 254 254
d 0.15 0 1 cbr 1000 ------- 0 0.0 2.0 254 254
- 0.151 0 1 cbr 1000 ------- 0 0.0 2.0 51 51
+ 0.151 0 1 cbr 1000 ------- 0 0.0 2.0 255 255
+ 0.151 0 1 cbr 1000 ------- 0 0.0 2.0 256 256
d 0.151 0 1 cbr 1000 ------- 0 0.0 2.0 256 256
+ 0.151 0 1 cbr 1000 ------- 0 0.0 2.0 257 257
d 0.151 0 1 cbr 1000 ------- 0 0.0 2.0 257 257
+ 0.151 0 1 cbr 1000 ------- 0 0.0 2.0 258 258
d 0.151 0 1 cbr 1000 ------- 0 0.0 2.0 258 258
+ 0.151 0 1 cbr 1000 ------- 0 0.0 2.0 259 259
d 0.151 0 1 cbr 1000 ------- 0 0.0 2.0 259 259
- 0.152 0 1 cbr 1000 ------- 0 0.0 2.0 52 52
+ 0.152 0 1 cbr 1000 ------- 0 0.0 2.0 260 260
+ 0.152 0 1 cbr 1000 ------- 0 0.0 2.0 261 261
d 0.152 0 1 cbr 1000 ------- 0 0.0 2.0 261 261
+ 0.152 0 1 cbr 1000 ------- 0 0.0 2.0 262 262
d 0.152 0 1 cbr 1000 ------- 0 0.0 2.0 262 262
+ 0.152 0 1 cbr 1000 ------- 0 0.0 2.0 263 263
d 0.152 0 1 cbr 1000 ------- 0 0.0 2.0 263 263
+ 0.152 0 1 cbr 1000 ------- 0 0.0 2.0 264 264
d 0.152 0 1 cbr 1000 ------- 0 0.0 2.0 264 264
- 0.153 0 1 cbr 1000 ------- 0 0.0 2.0 53 53
+ 0.153 0 1 cbr 1000 ------- 0 0.0 2.0 265 265
+ 0.153 0 1 cbr 1000 ------- 0 0.0 2.0 266 266
d 0.153 0 1 cbr 1000 ------- 0 0.0 2.0 266 266
+ 0.153 0 1 cbr 1000 ------- 0 0.0 2.0 267 267
d 0.153 0 1 cbr 1000 ------- 0 0.0 2.0 267 267
+ 0.153 0 1 cbr 1000 ------- 0 0.0 2.0 268 268
d 0.153 0 1 cbr 1000 ------- 0 0.0 2.0 268 268
+ 0.153 0 1 cbr 1000 ------- 0 0.0 2.0 269 269
d 0.153 0 1 cbr 1000 ------- 0 0.0 2.0 269 269
- 0.154 0 1 cbr 1000 ------- 0 0.0 2.0 54 54
+ 0.154 0 1 cbr 1000 ------- 0 0.0 2.0 270 270
+ 0.154 0 1 cbr 1000 ------- 0 0.0 2.0 271 271
d 0.154 0 1 cbr 1000 ------- 0 0.0 2.0 271 271
+ 0.154 0 1 cbr 1000 ------- 0 0.0 2.0 272 272
d 0.154 0 1 cbr 1000 ------- 0 0.0 2.0 272 272
+ 0.154 0 1 cbr 1000 ------- 0 0.0 2.0 273 273
d 0.154 0 1 cbr 1000 ------- 0 0.0 2.0 273 273
+ 0.154 0 1 cbr 1000 ------- 0 0.0 2.0 274 274
d 0.154 0 1 cbr 1000 ------- 0 0.0 2.0 274 274
- 0.155 0 1 cbr 1000 ------- 0 0.0 2.0 55 55
+ 0.155 0 1 cbr 1000 ------- 0 0.0 2.0 275 275
+ 0.155 0 1 cbr 1000 ------- 0 0.0 2.0 276 276
d 0.155 0 1 cbr 1000 ------- 0 0.0 2.0 276 276
+ 0.155 0 1 cbr 1000 ------- 0 0.0 2.0 277 277
d 0.155 0 1 cbr 1000 ------- 0 0.0 2.0 277 277
+ 0.155 0 1 cbr 1000 ------- 0 0.0 2.0 278 278
d 0.155 0 1 cbr 1000 ------- 0 0.0 2.0 278 278
+ 0.155 0 1 cbr 1000 ------- 0 0.0 2.0 279 279
d 0.155 0 1 cbr 1000 ------- 0 0.0 2.0 279 279
- 0.156 0 1 cbr 1000 ------- 0 0.0 2.0 56 56
+ 0.156 0 1 cbr 1000 ------- 0 0.0 2.0 280 280
+ 0.156 0 1 cbr 1000 ------- 0 0.0 2.0 281 281
d 0.156 0 1 cbr 1000 ------- 0 0.0 2.0 281 281
+ 0.156 0 1 cbr 1000 ------- 0 0.0 2.0 282 282
d 0.156 0 1 cbr 1000 ------- 0 0.0 2.0 282 282
+ 0.156 0 1 cbr 1000 ------- 0 0.0 2.0 283 283
d 0.156 0 1 cbr 1000 ------- 0 0.0 2.0 283 283
+ 0.156 0 1 cbr 1000 ------- 0 0.0 2.0 284 284
d 0.156 0 1 cbr 1000 ------- 0 0.0 2.0 284 284
- 0.157 0 1 cbr 1000 ------- 0 0.0 2.0 57 57
+ 0.157 0 1 cbr 1000 ------- 0 0.0 2.0 285 285
+ 0.157 0 1 cbr 1000 ------- 0 0.0 2.0 286 286
d 0.157 0 1 cbr 1000 ------- 0 0.0 2.0 286 286
+ 0.157 0 1 cbr 1000 ------- 0 0.0 2.0 287 287
d 0.157 0 1 cbr 1000 ------- 0 0.0 2.0 287 287
+ 0.157 0 1 cbr 1000 ------- 0 0.0 2.0 288 288
d 0.157 0 1 cbr 1000 ------- 0 0.0 2.0 288 288
+ 0.157 0 1 cbr 1000 ------- 0 0.0 2.0 289 289
d 0.157 0 1 cbr 1000 ------- 0 0.0 2.0 289 289
- 0.158 0 1 cbr 1000 ------- 0 0.0 2.0 58 58
+ 0.158 0 1 cbr 1000 ------- 0 0.0 2.0 290 290
+ 0.158 0 1 cbr 1000 ------- 0 0.0 2.0 291 291
d 0.158 0 1 cbr 1000 ------- 0 0.0 2.0 291 291
+ 0.158 0 1 cbr 1000 ------- 0 0.0 2.0 292 292
d 0.158 0 1 cbr 1000 ------- 0 0.0 2.0 292 292
+ 0.158 0 1 cbr 1000 ------- 0 0.0 2.0 293 293
d 0.158 0 1 cbr 1000 ------- 0 0.0 2.0 293 293
+ 0.158 0 1 cbr 1000 ------- 0 0.0 2.0 294 294
d 0.158 0 1 cbr 1000 ------- 0 0.0 2.0 294 294
- 0.159 0 1 cbr 1000 ------- 0 0.0 2.0 59 59
+ 0.159 0 1 cbr 1000 ------- 0 0.0 2.0 295 295
+ 0.159 0 1 cbr 1000 ------- 0 0.0 2.0 296 296
d 0.159 0 1 cbr 1000 ------- 0 0.0 2.0 296 296
+ 0.159 0 1 cbr 1000 ------- 0 0.0 2.0 297 297
d 0.159 0 1 cbr 1000 ------- 0 0.0 2.0 297 297
+ 0.159 0 1 cbr 1000 ------- 0 0.0 2.0 298 298
d 0.159 0 1 cbr 1000 ------- 0 0.0 2.0 298 298
+ 0.159 0 1 cbr 1000 ------- 0 0.0 2.0 299 299
d 0.159 0 1 cbr 1000 ------- 0 0.0 2.0 299 299
- 0.16 0 1 cbr 1000 ------- 0 0.0 2.0 60 60
+ 0.16 0 1 cbr 1000 ------- 0 0.0 2.0 300 300
+ 0.16 0 1 cbr 1000 ------- 0 0.0 2.0 301 301
d 0.16 0 1 cbr 1000 ------- 0 0.0 2.0 301 301
+ 0.16 0 1 cbr 1000 ------- 0 0.0 2.0 302 302
d 0.16 0 1 cbr 1000 ------- 0 0.0 2.0 302 302
+ 0.16 0 1 cbr 1000 ------- 0 0.0 2.0 303 303
d 0.16 0 1 cbr 1000 ------- 0 0.0 2.0 303 303
+ 0.16 0 1 cbr 1000 ------- 0 0.0 2.0 304 304
d 0.16 0 1 cbr 1000 ------- 0 0.0 2.0 304 304
- 0.161 0 1 cbr 1000 ------- 0 0.0 2.0 61 61
+ 0.161 0 1 cbr 1000 ------- 0 0.0 2.0 305 305
+ 0.161 0 1 cbr 1000 ------- 0 0.0 2.0 306 306
d 0.161 0 1 cbr 1000 ------- 0 0.0 2.0 306 306
+ 0.161 0 1 cbr 1000 ------- 0 0.0 2.0 307 307
d 0.161 0 1 cbr 1000 ------- 0 0.0 2.0 307 307
+ 0.161 0 1 cbr 1000 ------- 0 0.0 2.0 308 308
d 0.161 0 1 cbr 1000 ------- 0 0.0 2.0 308 308
+ 0.161 0 1 cbr 1000 ------- 0 0.0 2.0 309 309
d 0.161 0 1 cbr 1000 ------- 0 0.0 2.0 309 309
- 0.162 0 1 cbr 1000 ------- 0 0.0 2.0 65 65
+ 0.162 0 1 cbr 1000 ------- 0 0.0 2.0 310 310
+ 0.162 0 1 cbr 1000 ------- 0 0.0 2.0 311 311
d 0.162 0 1 cbr 1000 ------- 0 0.0 2.0 311 311
+ 0.162 0 1 cbr 1000 ------- 0 0.0 2.0 312 312
d 0.162 0 1 cbr 1000 ------- 0 0.0 2.0 312 312
+ 0.162 0 1 cbr 1000 ------- 0 0.0 2.0 313 313
d 0.162 0 1 cbr 1000 ------- 0 0.0 2.0 313 313
+ 0.162 0 1 cbr 1000 ------- 0 0.0 2.0 314 314
d 0.162 0 1 cbr 1000 ------- 0 0.0 2.0 314 314
- 0.163 0 1 cbr 1000 ------- 0 0.0 2.0 70 70
+ 0.163 0 1 cbr 1000 ------- 0 0.0 2.0 315 315
+ 0.163 0 1 cbr 1000 ------- 0 0.0 2.0 316 316
d 0.163 0 1 cbr 1000 ------- 0 0.0 2.0 316 316
+ 0.163 0 1 cbr 1000 ------- 0 0.0 2.0 317 317
d 0.163 0 1 cbr 1000 ------- 0 0.0 2.0 317 317
+ 0.163 0 1 cbr 1000 ------- 0 0.0 2.0 318 318
d 0.163 0 1 cbr 1000 ------- 0 0.0 2.0 318 318
+ 0.163 0 1 cbr 1000 ------- 0 0.0 2.0 319 319
d 0.163 0 1 cbr 1000 ------- 0 0.0 2.0 319 319
- 0.164 0 1 cbr 1000 ------- 0 0.0 2.0 75 75
+ 0.164 0 1 cbr 1000 ------- 0 0.0 2.0 320 320
+ 0.164 0 1 cbr 1000 ------- 0 0.0 2.0 321 321
d 0.164 0 1 cbr 1000 ------- 0 0.0 2.0 321 321
+ 0.164 0 1 cbr 1000 ------- 0 0.0 2.0 322 322
d 0.164 0 1 cbr 1000 ------- 0 0.0 2.0 322 322
+ 0.164 0 1 cbr 1000 ------- 0 0.0 2.0 323 323
d 0.164 0 1 cbr 1000 ------- 0 0.0 2.0 323 323
+ 0.164 0 1 cbr 1000 ------- 0 0.0 2.0 324 324
d 0.164 0 1 cbr 1000 ------- 0 0.0 2.0 324 324
- 0.165 0 1 cbr 1000 ------- 0 0.0 2.0 80 80
+ 0.165 0 1 cbr 1000 ------- 0 0.0 2.0 325 325
+ 0.165 0 1 cbr 1000 ------- 0 0.0 2.0 326 326
d 0.165 0 1 cbr 1000 ------- 0 0.0 2.0 326 326
+ 0.165 0 1 cbr 1000 ------- 0 0.0 2.0 327 327
d 0.165 0 1 cbr 1000 ------- 0 0.0 2.0 327 327
+ 0.165 0 1 cbr 1000 ------- 0 0.0 2.0 328 328
d 0.165 0 1 cbr 1000 ------- 0 0.0 2.0 328 328
+ 0.165 0 1 cbr 1000 ------- 0 0.0 2.0 329 329
d 0.165 0 1 cbr 1000 ------- 0 0.0 2.0 329 329
- 0.166 0 1 cbr 1000 ------- 0 0.0 2.0 85 85
+ 0.166 0 1 cbr 1000 ------- 0 0.0 2.0 330 330
+ 0.166 0 1 cbr 1000 ------- 0 0.0 2.0 331 331
d 0.166 0 1 cbr 1000 ------- 0 0.0 2.0 331 331
+ 0.166 0 1 cbr 1000 ------- 0 0.0 2.0 332 332
d 0.166 0 1 cbr 1000 ------- 0 0.0 2.0 332 332
+ 0.166 0 1 cbr 1000 ------- 0 0.0 2.0 333 333
d 0.166 0 1 cbr 1000 ------- 0 0.0 2.0 333 333
+ 0.166 0 1 cbr 1000 ------- 0 0.0 2.0 334 334
d 0.166 0 1 cbr 1000 ------- 0 0.0 2.0 334 334
- 0.167 0 1 cbr 1000 ------- 0 0.0 2.0 90 90
+ 0.167 0 1 cbr 1000 ------- 0 0.0 2.0 335 335
+ 0.167 0 1 cbr 1000 ------- 0 0.0 2.0 336 336
d 0.167 0 1 cbr 1000 ------- 0 0.0 2.0 336 336
+ 0.167 0 1 cbr 1000 ------- 0 0.0 2.0 337 337
d 0.167 0 1 cbr 1000 ------- 0 0.0 2.0 337 337
+ 0.167 0 1 cbr 1000 ------- 0 0.0 2.0 338 338
d 0.167 0 1 cbr 1000 ------- 0 0.0 2.0 338 338
+ 0.167 0 1 cbr 1000 ------- 0 0.0 2.0 339 339
d 0.167 0 1 cbr 1000 ------- 0 0.0 2.0 339 339
- 0.168 0 1 cbr 1000 ------- 0 0.0 2.0 95 95
+ 0.168 0 1 cbr 1000 ------- 0 0.0 2.0 340 340
+ 0.168 0 1 cbr 1000 ------- 0 0.0 2.0 341 341
d 0.168 0 1 cbr 1000 ------- 0 0.0 2.0 341 341
+ 0.168 0 1 cbr 1000 ------- 0 0.0 2.0 342 342
d 0.168 0 1 cbr 1000 ------- 0 0.0 2.0 342 342
+ 0.168 0 1 cbr 1000 ------- 0 0.0 2.0 343 343
d 0.168 0 1 cbr 1000 ------- 0 0.0 2.0 343 343
+ 0.168 0 1 cbr 1000 ------- 0 0.0 2.0 344 344
d 0.168 0 1 cbr 1000 ------- 0 0.0 2.0 344 344
- 0.169 0 1 cbr 1000 ------- 0 0.0 2.0 100 100
+ 0.169 0 1 cbr 1000 ------- 0 0.0 2.0 345 345
+ 0.169 0 1 cbr 1000 ------- 0 0.0 2.0 346 346
d 0.169 0 1 cbr 1000 ------- 0 0.0 2.0 346 346
+ 0.169 0 1 cbr 1000 ------- 0 0.0 2.0 347 347
d 0.169 0 1 cbr 1000 ------- 0 0.0 2.0 347 347
+ 0.169 0 1 cbr 1000 ------- 0 0.0 2.0 348 348
d 0.169 0 1 cbr 1000 ------- 0 0.0 2.0 348 348